
     Program DYNMAT v.6.4 starts on  7Jan2021 at 20:25:31 

     This program is part of the open-source Quantum ESPRESSO suite
     for quantum simulation of materials; please cite
         "P. Giannozzi et al., J. Phys.:Condens. Matter 21 395502 (2009);
         "P. Giannozzi et al., J. Phys.:Condens. Matter 29 465901 (2017);
          URL http://www.quantum-espresso.org", 
     in publications or presentations arising from this work. More details at
     http://www.quantum-espresso.org/quote

     Parallel version (MPI), running on    16 processors

     MPI processes distributed on     1 nodes
     R & G space division:  proc/nbgrp/npool/nimage =      16

     Reading Dynamical Matrix from file AlPO3_3.dynG
     ...Force constants read
     ...epsilon and Z* read
     ...Raman cross sections read
     Acoustic Sum Rule: || Z*(ASR) - Z*(orig)|| =    7.217650E-02
     Acoustic Sum Rule: ||dyn(ASR) - dyn(orig)||=    1.195549E-01
     A direction for q was not specified:TO-LO splitting will be absent

     Polarizability (A^3 units)
     multiply by 0.667384 for Clausius-Mossotti correction
       301.277472   -0.000700   -0.000700
        -0.000700  301.277472   -0.000700
        -0.000700   -0.000700  301.277472

     IR activities are in (D/A)^2/amu units
     Raman activities are in A^4/amu units
     multiply Raman by 0.445401 for Clausius-Mossotti correction

# mode   [cm-1]    [THz]      IR          Raman   depol.fact
    1   -409.18  -12.2670    0.1582         1.5881    0.7500
    2   -409.18  -12.2670    0.1582         1.5881    0.7500
    3   -243.28   -7.2934    0.0060         0.2575    0.7500
    4   -243.28   -7.2934    0.0060         0.2575    0.7500
    5   -234.75   -7.0375    0.0447         1.3930    0.0356
    6   -226.43   -6.7881    0.0115         0.1316    0.7500
    7   -226.43   -6.7881    0.0115         0.1316    0.7500
    8   -220.43   -6.6082    0.1041         0.3059    0.7500
    9   -220.43   -6.6082    0.1041         0.3059    0.7500
   10   -219.17   -6.5707    0.0514         0.0955    0.7500
   11   -219.17   -6.5707    0.0514         0.0955    0.7500
   12   -218.44   -6.5485    0.2243         0.1627    0.0291
   13   -214.82   -6.4400    0.0342         0.0779    0.4294
   14   -213.82   -6.4103    0.4058         0.4310    0.7500
   15   -213.82   -6.4103    0.4058         0.4310    0.7500
   16   -208.74   -6.2578    0.0261         0.1402    0.7500
   17   -208.74   -6.2578    0.0261         0.1402    0.7500
   18   -205.08   -6.1480    0.0105         0.0341    0.7500
   19   -205.08   -6.1480    0.0105         0.0341    0.7500
   20   -204.32   -6.1254    0.0066         0.0716    0.0459
   21   -201.39   -6.0375    0.0101         0.1246    0.7500
   22   -201.39   -6.0375    0.0101         0.1246    0.7500
   23   -194.54   -5.8322    0.0070         0.0957    0.7500
   24   -194.54   -5.8322    0.0070         0.0957    0.7500
   25   -189.43   -5.6789    0.0607         0.2691    0.7500
   26   -189.43   -5.6789    0.0607         0.2691    0.7500
   27   -188.03   -5.6371    0.1123         0.6630    0.3322
   28   -185.77   -5.5692    0.0186         0.0134    0.7500
   29   -185.77   -5.5692    0.0186         0.0134    0.7500
   30   -183.66   -5.5060    0.1453         0.0161    0.2147
   31   -177.84   -5.3316    0.0110         0.0280    0.0760
   32   -173.60   -5.2043    0.0608         0.1809    0.7500
   33   -173.60   -5.2043    0.0608         0.1809    0.7500
   34   -173.48   -5.2007    0.0012         0.2840    0.4562
   35   -171.51   -5.1417    0.0454         0.0256    0.7500
   36   -171.51   -5.1417    0.0454         0.0256    0.7500
   37   -167.06   -5.0082    0.0002         0.0363    0.3562
   38   -166.57   -4.9935    0.0571         0.1426    0.7500
   39   -166.57   -4.9935    0.0571         0.1426    0.7500
   40   -162.74   -4.8787    0.3570         0.3791    0.7500
   41   -162.74   -4.8787    0.3570         0.3791    0.7500
   42   -157.66   -4.7265    0.0617         0.2598    0.7500
   43   -157.66   -4.7265    0.0617         0.2598    0.7500
   44   -155.54   -4.6630    0.0095         0.0250    0.6136
   45   -150.45   -4.5102    0.0854         0.0050    0.7500
   46   -150.45   -4.5102    0.0854         0.0050    0.7500
   47   -147.87   -4.4331    0.0152         0.1089    0.0017
   48   -146.91   -4.4044    0.1583         0.2173    0.7500
   49   -146.91   -4.4044    0.1583         0.2173    0.7500
   50   -142.28   -4.2654    0.0194         1.2296    0.0466
   51   -138.69   -4.1579    0.0033         1.1771    0.0148
   52   -138.62   -4.1558    0.0982         0.0692    0.7500
   53   -138.62   -4.1558    0.0982         0.0692    0.7500
   54   -133.24   -3.9944    0.0457         0.3141    0.7500
   55   -133.24   -3.9944    0.0457         0.3141    0.7500
   56   -133.20   -3.9931    0.0289         0.4451    0.4128
   57   -132.24   -3.9644    0.0592         0.2360    0.7500
   58   -132.24   -3.9644    0.0592         0.2360    0.7500
   59   -126.74   -3.7994    0.0367         2.5767    0.0115
   60   -126.64   -3.7965    0.0095         0.3453    0.7500
   61   -126.64   -3.7965    0.0095         0.3453    0.7500
   62   -122.65   -3.6768    0.1292         0.0827    0.7500
   63   -122.65   -3.6768    0.1292         0.0827    0.7500
   64   -121.72   -3.6490    0.1247         0.2573    0.6207
   65   -118.78   -3.5611    0.1006         0.2712    0.7500
   66   -118.78   -3.5611    0.1006         0.2712    0.7500
   67   -116.68   -3.4979    0.0000         0.2064    0.1075
   68   -116.22   -3.4842    0.0004         0.1079    0.7500
   69   -116.22   -3.4842    0.0004         0.1079    0.7500
   70   -107.75   -3.2301    0.0169         0.0619    0.7500
   71   -107.75   -3.2301    0.0169         0.0619    0.7500
   72   -106.08   -3.1802    0.0949         0.0238    0.7462
   73   -103.47   -3.1019    0.0092         0.1498    0.0009
   74   -103.32   -3.0974    0.0234         0.1473    0.7500
   75   -103.32   -3.0974    0.0234         0.1473    0.7500
   76    -97.86   -2.9338    0.0129         0.0402    0.0424
   77    -97.26   -2.9158    0.0042         1.0944    0.7500
   78    -97.26   -2.9158    0.0042         1.0944    0.7500
   79    -92.29   -2.7668    0.0311         1.1355    0.7500
   80    -92.29   -2.7668    0.0311         1.1355    0.7500
   81    -90.95   -2.7266    0.1684         0.1317    0.7118
   82    -89.05   -2.6697    0.0451         0.1565    0.7500
   83    -89.05   -2.6697    0.0451         0.1565    0.7500
   84    -86.86   -2.6041    0.1463         0.2639    0.7500
   85    -86.86   -2.6041    0.1463         0.2639    0.7500
   86    -86.57   -2.5954    0.0161         0.0228    0.2811
   87    -79.75   -2.3910    0.0285         0.2305    0.0158
   88    -75.07   -2.2505    0.1254         0.4372    0.7500
   89    -75.07   -2.2505    0.1254         0.4372    0.7500
   90    -62.77   -1.8817    0.0019         0.0106    0.6412
   91    -56.25   -1.6862    0.0246         0.0925    0.6435
   92    -42.74   -1.2814    0.0207         0.7612    0.7500
   93    -42.74   -1.2814    0.0207         0.7612    0.7500
   94    -36.97   -1.1083    0.0035         0.2919    0.0101
   95    -31.91   -0.9565    0.2268         1.0735    0.7500
   96    -31.91   -0.9565    0.2268         1.0735    0.7500
   97     -0.00   -0.0000    0.0000         0.0014    0.7499
   98      0.00    0.0000    0.0000         0.0014    0.7499
   99      0.00    0.0000    0.0000         0.0014    0.7500
  100      8.43    0.2528    0.0098         0.1989    0.2083
  101     26.04    0.7806    0.0138         0.1796    0.7500
  102     26.04    0.7806    0.0138         0.1796    0.7500
  103     31.36    0.9402    0.0000         0.0024    0.7482
  104     46.58    1.3963    0.0124         1.1373    0.4486
  105     48.66    1.4589    0.4470         0.1012    0.7500
  106     48.66    1.4589    0.4470         0.1012    0.7500
  107     63.26    1.8964    0.2969         1.1987    0.7500
  108     63.26    1.8964    0.2969         1.1987    0.7500
  109     67.81    2.0329    0.0024         0.3945    0.1290
  110     75.26    2.2563    0.0372         0.2596    0.7185
  111     83.60    2.5063    0.1668         1.0490    0.7500
  112     83.60    2.5063    0.1668         1.0490    0.7500
  113     84.02    2.5190    0.0222         0.3959    0.2244
  114     87.31    2.6175    0.0504         0.1235    0.2223
  115     92.60    2.7761    0.3800         0.6790    0.7500
  116     92.60    2.7761    0.3800         0.6790    0.7500
  117     94.74    2.8401    0.4803         2.2682    0.7500
  118     94.74    2.8401    0.4803         2.2682    0.7500
  119     98.81    2.9624    0.0010         0.5339    0.5747
  120    102.13    3.0618    0.1739         1.7530    0.7500
  121    102.13    3.0618    0.1739         1.7530    0.7500
  122    103.58    3.1051    0.0090         2.4391    0.0639
  123    107.76    3.2307    0.8885         5.5162    0.7500
  124    107.76    3.2307    0.8885         5.5162    0.7500
  125    111.56    3.3446    0.0367         7.7117    0.0060
  126    114.97    3.4467    0.0216         0.4805    0.5809
  127    122.18    3.6629    0.0064         0.0116    0.3560
  128    126.91    3.8047    0.0444        37.7191    0.0052
  129    130.12    3.9008    0.2402         0.5131    0.7500
  130    130.12    3.9008    0.2402         0.5131    0.7500
  131    133.07    3.9892    0.1195         2.7345    0.0003
  132    142.74    4.2792    0.0240         0.2477    0.7500
  133    142.74    4.2792    0.0240         0.2477    0.7500
  134    146.06    4.3786    0.0719         5.4201    0.0171
  135    147.56    4.4238    0.4919         7.1361    0.0002
  136    149.60    4.4848    0.0529         1.2600    0.7500
  137    149.60    4.4848    0.0529         1.2600    0.7500
  138    152.32    4.5665    0.0049         2.7458    0.0174
  139    153.98    4.6163    1.6872         3.3550    0.7500
  140    153.98    4.6163    1.6872         3.3550    0.7500
  141    156.98    4.7063    0.0765        40.6524    0.0079
  142    169.23    5.0734    0.0575        11.6796    0.7500
  143    169.23    5.0734    0.0575        11.6796    0.7500
  144    173.19    5.1920    0.0124         3.5922    0.0000
  145    173.83    5.2113    0.0025         0.9698    0.7500
  146    173.83    5.2113    0.0025         0.9698    0.7500
  147    176.01    5.2767    0.6396         1.5823    0.6503
  148    180.63    5.4152    0.3061         1.2450    0.3051
  149    182.58    5.4737    0.0100         0.4519    0.7500
  150    182.58    5.4737    0.0100         0.4519    0.7500
  151    186.29    5.5848    0.0650         0.2421    0.7500
  152    186.29    5.5848    0.0650         0.2421    0.7500
  153    192.46    5.7697    0.3807         0.0270    0.7500
  154    192.46    5.7697    0.3807         0.0270    0.7500
  155    197.77    5.9291    0.4404         1.3966    0.7500
  156    197.77    5.9291    0.4404         1.3966    0.7500
  157    198.78    5.9593    1.2815         0.2936    0.6802
  158    201.13    6.0298    0.9880         1.4217    0.7500
  159    201.13    6.0298    0.9880         1.4217    0.7500
  160    204.51    6.1311    0.7433         2.4082    0.7500
  161    204.51    6.1311    0.7433         2.4082    0.7500
  162    204.60    6.1338    0.0035         0.9432    0.0127
  163    206.95    6.2041    0.1214         0.0536    0.0841
  164    213.64    6.4049    0.0524         0.8391    0.7500
  165    213.64    6.4049    0.0524         0.8391    0.7500
  166    213.69    6.4063    0.0054         3.0945    0.4029
  167    217.05    6.5070    0.0120         2.1737    0.7500
  168    217.05    6.5070    0.0120         2.1737    0.7500
  169    217.64    6.5246    0.0238         2.0923    0.0000
  170    220.26    6.6032    0.0688         0.2555    0.0414
  171    221.09    6.6281    1.2732         1.8988    0.7500
  172    221.09    6.6281    1.2732         1.8988    0.7500
  173    221.95    6.6538    0.0064         0.8388    0.0573
  174    224.29    6.7239    0.0980         1.2024    0.7500
  175    224.29    6.7239    0.0980         1.2024    0.7500
  176    224.32    6.7249    0.0000         0.2862    0.0673
  177    228.01    6.8356    0.2504         0.6802    0.0137
  178    232.20    6.9611    0.0317         2.8628    0.7500
  179    232.20    6.9611    0.0317         2.8628    0.7500
  180    232.26    6.9628    0.2986         2.6951    0.0011
  181    235.55    7.0617    0.1048        12.2669    0.7500
  182    235.55    7.0617    0.1048        12.2669    0.7500
  183    239.51    7.1803    0.0261        23.2883    0.0000
  184    240.12    7.1986    0.0066         1.4518    0.7500
  185    240.12    7.1986    0.0066         1.4518    0.7500
  186    243.23    7.2918    0.0788         0.4462    0.7500
  187    243.23    7.2918    0.0788         0.4462    0.7500
  188    245.28    7.3532    5.9172         0.2411    0.0441
  189    245.51    7.3601    2.3918         0.0935    0.0135
  190    248.17    7.4400    0.0947         0.0860    0.7500
  191    248.17    7.4400    0.0947         0.0860    0.7500
  192    250.97    7.5240    0.0916         0.2010    0.2166
  193    251.55    7.5414    0.4948         2.2875    0.7500
  194    251.55    7.5414    0.4948         2.2875    0.7500
  195    256.19    7.6804    0.7031         2.1692    0.7500
  196    256.19    7.6804    0.7031         2.1692    0.7500
  197    258.05    7.7362    0.1616         0.4181    0.0053
  198    259.52    7.7803    0.8971         3.8084    0.7500
  199    259.52    7.7803    0.8971         3.8084    0.7500
  200    262.07    7.8566    0.2048         0.0835    0.7016
  201    263.11    7.8879    3.8296         2.7015    0.7500
  202    263.11    7.8879    3.8296         2.7015    0.7500
  203    267.09    8.0073    1.8049         2.0624    0.7500
  204    267.09    8.0073    1.8049         2.0624    0.7500
  205    268.34    8.0447    1.4448         0.9066    0.7500
  206    268.34    8.0447    1.4448         0.9066    0.7500
  207    269.43    8.0773    2.2202         0.2350    0.0461
  208    273.89    8.2109    0.0408         1.3668    0.6950
  209    274.29    8.2231    2.8676         1.3170    0.3401
  210    274.96    8.2431    0.6486         2.2232    0.7500
  211    274.96    8.2431    0.6486         2.2232    0.7500
  212    277.20    8.3101    0.0594        15.0444    0.7500
  213    277.20    8.3101    0.0594        15.0444    0.7500
  214    280.32    8.4039    0.2609         0.5069    0.2281
  215    281.85    8.4495    0.0146         0.2655    0.5352
  216    283.03    8.4851    0.2226         3.4665    0.7500
  217    283.03    8.4851    0.2226         3.4665    0.7500
  218    285.73    8.5659    0.6301        19.5696    0.7500
  219    285.73    8.5659    0.6301        19.5696    0.7500
  220    286.74    8.5964    0.0565         0.2485    0.0782
  221    287.44    8.6171    0.4371        12.1964    0.7500
  222    287.44    8.6171    0.4371        12.1964    0.7500
  223    290.16    8.6987    0.3129         9.3725    0.7378
  224    293.26    8.7916    0.1088         5.1161    0.7331
  225    294.40    8.8257    0.4116         7.3271    0.7296
  226    294.92    8.8416    0.1414         5.5097    0.7500
  227    294.92    8.8416    0.1414         5.5097    0.7500
  228    298.12    8.9373    0.0000         0.5306    0.7330
  229    298.54    8.9500    0.0651         4.7786    0.7500
  230    298.54    8.9500    0.0651         4.7786    0.7500
  231    302.53    9.0696    0.4042         6.0053    0.7500
  232    302.53    9.0696    0.4042         6.0053    0.7500
  233    305.87    9.1696    1.2566         2.3005    0.7500
  234    305.87    9.1696    1.2566         2.3005    0.7500
  235    306.16    9.1785    5.2503         5.5943    0.7494
  236    306.94    9.2020    1.5101         0.6856    0.7500
  237    306.94    9.2020    1.5101         0.6856    0.7500
  238    310.90    9.3205    0.6292         0.3053    0.7500
  239    310.90    9.3205    0.6292         0.3053    0.7500
  240    312.76    9.3764    0.3323         0.6440    0.7461
  241    314.14    9.4178    0.0617         2.6847    0.7500
  242    314.14    9.4178    0.0617         2.6847    0.7500
  243    320.48    9.6079    0.1489         2.8824    0.0004
  244    320.75    9.6159    0.4762         3.4097    0.7500
  245    320.75    9.6159    0.4762         3.4097    0.7500
  246    321.86    9.6490    0.0648         0.8182    0.1911
  247    322.90    9.6802    0.5563         2.6218    0.7500
  248    322.90    9.6802    0.5563         2.6218    0.7500
  249    323.80    9.7074    0.0467         0.5925    0.7500
  250    323.80    9.7074    0.0467         0.5925    0.7500
  251    326.55    9.7896    0.1031         0.4318    0.7500
  252    326.55    9.7896    0.1031         0.4318    0.7500
  253    327.80    9.8273    0.0007         0.1351    0.6664
  254    327.93    9.8311    0.0895         7.9129    0.7500
  255    327.93    9.8311    0.0895         7.9129    0.7500
  256    330.76    9.9159    0.4323         0.5093    0.7500
  257    330.76    9.9159    0.4323         0.5093    0.7500
  258    331.09    9.9258    0.0792         0.6630    0.1167
  259    334.84   10.0383    0.4831         0.9522    0.7500
  260    336.10   10.0759    0.3070         0.1035    0.7500
  261    336.10   10.0759    0.3070         0.1035    0.7500
  262    336.95   10.1014    0.2224         0.6396    0.3207
  263    339.46   10.1766    0.0009         0.2135    0.4361
  264    340.07   10.1949    1.0663         0.8568    0.7500
  265    340.07   10.1949    1.0663         0.8568    0.7500
  266    341.50   10.2380    0.0016        14.0034    0.7471
  267    343.33   10.2929    0.1725         0.5223    0.7500
  268    343.33   10.2929    0.1725         0.5223    0.7500
  269    344.08   10.3153    0.0916         0.0823    0.7500
  270    344.08   10.3153    0.0916         0.0823    0.7500
  271    345.24   10.3499    0.8060         0.4940    0.5311
  272    346.34   10.3831    4.0528         0.1548    0.7500
  273    346.34   10.3831    4.0528         0.1548    0.7500
  274    348.94   10.4611   21.3235         1.7052    0.7500
  275    348.94   10.4611   21.3235         1.7052    0.7500
  276    352.85   10.5781   15.2077         0.2282    0.7500
  277    352.85   10.5781   15.2077         0.2282    0.7500
  278    354.22   10.6193    0.5819         0.1720    0.7500
  279    354.22   10.6193    0.5819         0.1720    0.7500
  280    357.87   10.7287    2.2085         0.0070    0.7500
  281    357.87   10.7287    2.2085         0.0070    0.7500
  282    359.70   10.7837    0.8439         1.6661    0.7491
  283    360.64   10.8116   12.9053         0.1277    0.7500
  284    360.64   10.8116   12.9053         0.1277    0.7500
  285    361.54   10.8386    5.4131         0.3042    0.7500
  286    361.54   10.8386    5.4131         0.3042    0.7500
  287    362.99   10.8822    0.1871         0.6189    0.3236
  288    364.24   10.9195    0.4219         0.7254    0.0583
  289    365.46   10.9562   22.5814         0.7740    0.7500
  290    365.46   10.9562   22.5814         0.7740    0.7500
  291    365.91   10.9696    0.0622         0.0788    0.0288
  292    368.20   11.0384   11.6152         0.3670    0.7500
  293    368.20   11.0384   11.6152         0.3670    0.7500
  294    370.12   11.0961   45.9887         0.7565    0.7500
  295    370.12   11.0961   45.9887         0.7565    0.7500
  296    373.35   11.1928   25.0435         0.5075    0.7500
  297    373.35   11.1928   25.0435         0.5075    0.7500
  298    373.48   11.1967    1.5877        11.2746    0.0038
  299    375.81   11.2664    0.0326        29.3556    0.0085
  300    376.09   11.2748    6.9039         0.2857    0.7500
  301    376.09   11.2748    6.9039         0.2857    0.7500
  302    377.02   11.3029    0.0392         1.0560    0.4232
  303    378.68   11.3526    0.0575         4.3112    0.0821
  304    380.48   11.4066   13.6779         0.2678    0.7500
  305    380.48   11.4066   13.6779         0.2678    0.7500
  306    381.71   11.4434    2.1571         0.3307    0.0057
  307    384.76   11.5349   25.0706         1.5417    0.7500
  308    384.76   11.5349   25.0706         1.5417    0.7500
  309    387.25   11.6093   24.9730         2.3104    0.2558
  310    388.74   11.6541   63.0193         0.7824    0.7500
  311    388.74   11.6541   63.0193         0.7824    0.7500
  312    389.41   11.6741    4.1843         0.9756    0.5551
  313    390.96   11.7206    0.0311         0.7055    0.0162
  314    391.90   11.7487   96.1229         5.9769    0.7224
  315    393.55   11.7984    6.9980         1.8864    0.7500
  316    393.55   11.7984    6.9980         1.8864    0.7500
  317    395.87   11.8678    0.8462         4.0851    0.7500
  318    395.87   11.8678    0.8462         4.0851    0.7500
  319    400.49   12.0065    1.1196         9.0976    0.7500
  320    400.49   12.0065    1.1196         9.0976    0.7500
  321    405.26   12.1493    2.3535         5.8557    0.7500
  322    405.26   12.1493    2.3535         5.8557    0.7500
  323    405.49   12.1562    2.6647         1.4224    0.0141
  324    408.78   12.2548    0.5821         1.3560    0.0052
  325    409.71   12.2829   13.0885        13.3455    0.7500
  326    409.71   12.2829   13.0885        13.3455    0.7500
  327    412.15   12.3558    1.6912         3.8019    0.0050
  328    414.55   12.4279    0.2907         0.2811    0.7500
  329    414.55   12.4279    0.2907         0.2811    0.7500
  330    415.06   12.4430    1.8407         1.4448    0.2572
  331    416.09   12.4739    0.5819         1.7222    0.7087
  332    418.55   12.5479   26.5362         8.4259    0.3759
  333    419.96   12.5901    0.8001         0.8497    0.7500
  334    419.96   12.5901    0.8001         0.8497    0.7500
  335    420.94   12.6195    3.8654         3.4410    0.0016
  336    422.06   12.6530    0.6872         4.6579    0.7500
  337    422.06   12.6530    0.6872         4.6579    0.7500
  338    422.98   12.6807   12.7761         6.7223    0.1314
  339    424.54   12.7274   27.9886         0.3241    0.5035
  340    427.56   12.8180    8.1077         3.7613    0.7500
  341    427.56   12.8180    8.1077         3.7613    0.7500
  342    428.85   12.8566   57.6935         0.7514    0.0027
  343    431.39   12.9327   62.1391         3.1188    0.2890
  344    433.01   12.9814    4.4846        36.3825    0.1079
  345    438.47   13.1449    0.4166         0.0853    0.7500
  346    438.47   13.1449    0.4166         0.0853    0.7500
  347    438.97   13.1601    1.2967         2.6020    0.0952
  348    439.72   13.1825    0.9513         0.1602    0.7500
  349    439.72   13.1825    0.9513         0.1602    0.7500
  350    440.37   13.2019    2.0487         1.3530    0.0361
  351    442.77   13.2739    0.0505         0.2136    0.7500
  352    442.77   13.2739    0.0505         0.2136    0.7500
  353    443.49   13.2955    0.0202         0.0879    0.7500
  354    443.49   13.2955    0.0202         0.0879    0.7500
  355    450.77   13.5136    0.0760         0.4935    0.7500
  356    450.77   13.5136    0.0760         0.4935    0.7500
  357    453.04   13.5819    1.0270         0.7355    0.4899
  358    454.51   13.6259    5.4682        21.0737    0.6966
  359    457.27   13.7085    4.9042        11.2617    0.5716
  360    460.98   13.8200    0.0002         8.3380    0.5289
  361    461.60   13.8386    2.1576         6.0746    0.6992
  362    470.52   14.1059    1.9032         2.8831    0.7500
  363    470.52   14.1059    1.9032         2.8831    0.7500
  364    476.01   14.2705    0.2499         0.1755    0.7500
  365    476.01   14.2705    0.2499         0.1755    0.7500
  366    476.01   14.2705    0.2523       178.6098    0.0002
  367    479.89   14.3867    0.0629         0.2014    0.7500
  368    479.89   14.3867    0.0629         0.2014    0.7500
  369    491.30   14.7289    0.1556         0.2951    0.1827
  370    492.19   14.7556    0.0068         2.8401    0.0071
  371    493.83   14.8048    0.0362         0.8896    0.0056
  372    496.05   14.8711    0.1313         0.0342    0.7500
  373    496.05   14.8711    0.1313         0.0342    0.7500
  374    500.44   15.0027    0.0351         0.7544    0.6768
  375    500.89   15.0162    0.0104         0.0091    0.7500
  376    500.89   15.0162    0.0104         0.0091    0.7500
  377    503.16   15.0842    0.1294         0.0639    0.7500
  378    503.16   15.0842    0.1294         0.0639    0.7500
  379    504.41   15.1218    0.9295         2.8233    0.4116
  380    515.16   15.4440    0.0360         3.5382    0.0003
  381    519.11   15.5624    0.0942         0.4982    0.0080
  382    522.83   15.6742    0.0002         3.4325    0.0000
  383    526.72   15.7908    0.0002         0.3748    0.0093
  384    526.99   15.7986    0.2288         5.4716    0.7500
  385    526.99   15.7986    0.2288         5.4716    0.7500
  386    530.30   15.8979    0.3263         0.1089    0.7500
  387    530.30   15.8979    0.3263         0.1089    0.7500
  388    534.55   16.0255    0.8276         0.1633    0.7500
  389    534.55   16.0255    0.8276         0.1633    0.7500
  390    536.25   16.0764    0.1186         0.0422    0.1251
  391    541.21   16.2250    3.4281         0.3480    0.7500
  392    541.21   16.2250    3.4281         0.3480    0.7500
  393    546.69   16.3894    0.2624         0.9318    0.7500
  394    546.69   16.3894    0.2624         0.9318    0.7500
  395    555.73   16.6603    2.3533         0.0918    0.7500
  396    555.73   16.6603    2.3533         0.0918    0.7500
  397    560.41   16.8008    4.3182         0.1631    0.7500
  398    560.41   16.8008    4.3182         0.1631    0.7500
  399    561.54   16.8345    0.2664         0.0089    0.7500
  400    561.54   16.8345    0.2664         0.0089    0.7500
  401    562.96   16.8772    0.1075         3.9891    0.0469
  402    565.32   16.9478    8.2958         0.5992    0.7500
  403    565.32   16.9478    8.2958         0.5992    0.7500
  404    565.99   16.9680    0.4971         0.3291    0.0004
  405    567.27   17.0062    3.8397         0.4070    0.7500
  406    567.27   17.0062    3.8397         0.4070    0.7500
  407    569.72   17.0797    9.7939         0.6656    0.7500
  408    569.72   17.0797    9.7939         0.6656    0.7500
  409    570.77   17.1113    0.0318         0.5933    0.0170
  410    571.41   17.1306    0.3056         0.3266    0.0635
  411    575.76   17.2608    1.6413         0.3657    0.7500
  412    575.76   17.2608    1.6413         0.3657    0.7500
  413    575.81   17.2622    0.0283         0.0674    0.0147
  414    576.69   17.2887    0.0004         0.4787    0.0064
  415    580.57   17.4050   10.6407         0.6248    0.7500
  416    580.57   17.4050   10.6407         0.6248    0.7500
  417    584.32   17.5175    1.4677         0.1118    0.7500
  418    584.32   17.5175    1.4677         0.1118    0.7500
  419    592.99   17.7773    1.2482         0.0513    0.7500
  420    592.99   17.7773    1.2482         0.0513    0.7500
  421    594.50   17.8227    0.3889         0.0160    0.7500
  422    594.50   17.8227    0.3889         0.0160    0.7500
  423    595.38   17.8490    0.0245         0.9504    0.1887
  424    601.22   18.0240    6.2689        12.4310    0.4459
  425    605.20   18.1435    0.1368        60.0496    0.0000
  426    607.75   18.2200    0.5628         1.0139    0.1264
  427    612.07   18.3493    0.4748        84.9479    0.0001
  428    618.93   18.5552    0.0043        19.9006    0.0001
  429    621.92   18.6447    8.6391        11.5680    0.0127
  430    628.00   18.8270    0.0222         4.6688    0.0014
  431    630.39   18.8985    0.0320        11.7070    0.0000
  432    650.50   19.5016    0.0809       146.4604    0.0000
  433    654.18   19.6120    0.0595       361.1509    0.0002
  434    654.49   19.6212    0.0277         0.0053    0.7500
  435    654.49   19.6212    0.0277         0.0053    0.7500
  436    659.17   19.7614    0.1004       290.8995    0.0001
  437    667.99   20.0260    0.0424         1.5955    0.0002
  438    670.44   20.0993    0.1262         7.7728    0.0001
  439    672.40   20.1580    0.1087         0.0549    0.7500
  440    672.40   20.1580    0.1087         0.0549    0.7500
  441    677.21   20.3022    0.1306         0.0053    0.7500
  442    677.21   20.3022    0.1306         0.0053    0.7500
  443    678.53   20.3418    0.3544         0.0381    0.7500
  444    678.53   20.3418    0.3544         0.0381    0.7500
  445    704.73   21.1274    0.4201         0.0275    0.7500
  446    704.73   21.1274    0.4201         0.0275    0.7500
  447    707.86   21.2212    3.5017         0.0800    0.7500
  448    707.86   21.2212    3.5017         0.0800    0.7500
  449    710.08   21.2876   18.4646         0.2751    0.7500
  450    710.08   21.2876   18.4646         0.2751    0.7500
  451    712.56   21.3620   18.0687         0.2855    0.7500
  452    712.56   21.3620   18.0687         0.2855    0.7500
  453    713.93   21.4030   18.3951         1.4632    0.1432
  454    719.53   21.5711   15.3474         0.1227    0.7500
  455    719.53   21.5711   15.3474         0.1227    0.7500
  456    725.49   21.7498    0.0663         0.0015    0.7500
  457    725.49   21.7498    0.0663         0.0015    0.7500
  458    727.20   21.8010    0.8027         0.2266    0.0648
  459    729.47   21.8691   19.7185         0.8775    0.3684
  460    730.12   21.8883    0.1054         0.0032    0.7500
  461    730.12   21.8883    0.1054         0.0032    0.7500
  462    732.54   21.9611    1.4575         0.2043    0.0843
  463    734.30   22.0138    2.4500         1.6826    0.0254
  464    735.88   22.0610   10.8699         0.8721    0.2036
  465    737.45   22.1082    3.1620         0.2546    0.1605
  466    740.70   22.2057    0.6380         1.0811    0.0066
  467    742.78   22.2680    0.3884         0.0269    0.7500
  468    742.78   22.2680    0.3884         0.0269    0.7500
  469    767.65   23.0136    3.8523         0.4717    0.7500
  470    767.65   23.0136    3.8523         0.4717    0.7500
  471    774.52   23.2196    0.0081         0.0150    0.7500
  472    774.52   23.2196    0.0081         0.0150    0.7500
  473    776.10   23.2669    0.0892         0.0148    0.7500
  474    776.10   23.2669    0.0892         0.0148    0.7500
  475    779.11   23.3570    0.0567         0.0159    0.0172
  476    793.59   23.7911    6.8616         0.1696    0.7482
  477    799.17   23.9584    0.7951         0.0806    0.1166
  478    799.32   23.9630    0.0544         9.4904    0.7500
  479    799.32   23.9630    0.0544         9.4904    0.7500
  480    801.13   24.0172    0.3027         0.0266    0.6123
  481    886.18   26.5669    0.0201         8.8626    0.7500
  482    886.18   26.5669    0.0201         8.8626    0.7500
  483    891.91   26.7389    0.0004         0.0582    0.7500
  484    891.91   26.7389    0.0004         0.0582    0.7500
  485    893.05   26.7731    0.0157         0.0851    0.7500
  486    893.05   26.7731    0.0157         0.0851    0.7500
  487    894.47   26.8155    0.0552        10.5938    0.0001
  488    894.91   26.8287    0.4094         6.5935    0.0000
  489    895.78   26.8549    0.0033         0.0422    0.7500
  490    895.78   26.8549    0.0033         0.0422    0.7500
  491    895.85   26.8570    0.0033         2.3062    0.0000
  492    897.10   26.8945    0.6215         1.4129    0.0000
  493    985.55   29.5461  256.6429         9.7739    0.7499
  494    986.96   29.5884  251.6310        10.6807    0.7500
  495    986.96   29.5884  251.6310        10.6807    0.7500
  496    991.40   29.7213    2.8473         0.1895    0.7500
  497    991.40   29.7213    2.8473         0.1895    0.7500
  498    992.99   29.7690    0.6024         0.0821    0.7500
  499    992.99   29.7690    0.6024         0.0821    0.7500
  500   1001.14   30.0135    0.1457         0.0577    0.1816
  501   1002.37   30.0502    0.3527         0.0453    0.7500
  502   1002.37   30.0502    0.3527         0.0453    0.7500
  503   1006.40   30.1710    0.0040         0.3097    0.0671
  504   1010.20   30.2849    1.2182         0.4303    0.4411
  505   1025.03   30.7297  163.8193         2.6874    0.7500
  506   1025.03   30.7297  163.8193         2.6874    0.7500
  507   1029.83   30.8735   23.1678         0.1834    0.1597
  508   1031.09   30.9114   15.0735         0.2923    0.5249
  509   1032.71   30.9599  121.1365         0.8465    0.7457
  510   1035.03   31.0296    1.9629         0.0593    0.7500
  511   1035.03   31.0296    1.9629         0.0593    0.7500
  512   1035.34   31.0388    0.6357         0.2048    0.1410
  513   1036.96   31.0873    0.0128         0.0049    0.7500
  514   1036.96   31.0873    0.0128         0.0049    0.7500
  515   1046.33   31.3683    0.5051         0.0499    0.7500
  516   1046.33   31.3683    0.5051         0.0499    0.7500
  517   1061.23   31.8148   28.6464         1.3069    0.5613
  518   1064.27   31.9061   31.5276         1.3582    0.7500
  519   1064.27   31.9061   31.5276         1.3582    0.7500
  520   1082.05   32.4391    0.0278        70.9237    0.7500
  521   1082.05   32.4391    0.0278        70.9237    0.7500
  522   1090.56   32.6941    0.1332         0.0070    0.1389
  523   1091.64   32.7265    0.2324         0.0926    0.0025
  524   1102.83   33.0620    0.0581         0.0178    0.7500
  525   1102.83   33.0620    0.0581         0.0178    0.7500
  526   1104.43   33.1101    0.0076         0.0751    0.7500
  527   1104.43   33.1101    0.0076         0.0751    0.7500
  528   1142.81   34.2604    0.1182         0.5227    0.0055
  529   1149.37   34.4572   18.4674         6.3226    0.7491
  530   1159.27   34.7542    0.8212         1.7459    0.0372
  531   1160.62   34.7945    0.0000         0.0268    0.1870
  532   1173.26   35.1734   20.7880         5.7238    0.7493
  533   1174.01   35.1958    5.1610         1.5571    0.5313
  534   1176.40   35.2676    0.1070        30.2347    0.7500
  535   1176.40   35.2676    0.1070        30.2347    0.7500
  536   1181.78   35.4289    0.1422         4.5249    0.5199
  537   1181.87   35.4317    0.0201         8.8642    0.6077
  538   1183.24   35.4726    0.0004         4.8721    0.6068
  539   1183.44   35.4785    0.5649         0.3706    0.7500
  540   1183.44   35.4785    0.5649         0.3706    0.7500
  541   1184.52   35.5110    0.0281        14.0220    0.4204
  542   1184.68   35.5158    0.0185         0.0769    0.7500
  543   1184.68   35.5158    0.0185         0.0769    0.7500
  544   1186.32   35.5649    0.4771         4.2271    0.0056
  545   1187.58   35.6028    0.0036         6.1225    0.0000
  546   1187.59   35.6032    5.1445         0.7240    0.7500
  547   1187.59   35.6032    5.1445         0.7240    0.7500
  548   1196.52   35.8708   27.9911         0.4234    0.7500
  549   1196.52   35.8708   27.9911         0.4234    0.7500
  550   1198.86   35.9408    2.1434         0.1504    0.7500
  551   1198.86   35.9408    2.1434         0.1504    0.7500
  552   1200.13   35.9790    1.4848         0.1731    0.7500
  553   1200.13   35.9790    1.4848         0.1731    0.7500
  554   1215.10   36.4278    0.0097        12.0194    0.0000
  555   1217.44   36.4980    0.0070         0.3728    0.0001
  556   1218.55   36.5313    7.9102         7.2064    0.7500
  557   1218.55   36.5313    7.9102         7.2064    0.7500
  558   1220.26   36.5823    0.0846        90.1033    0.0000
  559   1223.36   36.6753    0.4251         0.1178    0.7500
  560   1223.36   36.6753    0.4251         0.1178    0.7500
  561   1225.51   36.7399    0.0518       819.8139    0.0000
  562   1225.83   36.7495    3.7438        23.7582    0.7500
  563   1225.83   36.7495    3.7438        23.7582    0.7500
  564   1226.78   36.7779    0.7631         4.2620    0.7500
  565   1226.78   36.7779    0.7631         4.2620    0.7500
  566   1234.48   37.0089    0.0092        52.4054    0.7500
  567   1234.48   37.0089    0.0092        52.4054    0.7500
  568   1234.95   37.0229    0.2332      1212.8312    0.0000
  569   1240.12   37.1779    0.4499         7.2174    0.7500
  570   1240.12   37.1779    0.4499         7.2174    0.7500
  571   1252.15   37.5387    0.3018         0.2354    0.7500
  572   1252.15   37.5387    0.3018         0.2354    0.7500
  573   1266.37   37.9648  107.2843         9.0693    0.7416
  574   1266.73   37.9755    0.1017         1.3217    0.7500
  575   1266.73   37.9755    0.1017         1.3217    0.7500
  576   1267.90   38.0108    0.2935         1.8187    0.7500
  577   1267.90   38.0108    0.2935         1.8187    0.7500
  578   1269.67   38.0636    0.8889        60.0250    0.7500
  579   1269.67   38.0636    0.8889        60.0250    0.7500
  580   1269.75   38.0662    0.0497         0.2209    0.0050
  581   1269.88   38.0702    0.0306         0.1205    0.0124
  582   1270.44   38.0869    0.2091         0.1473    0.0448
  583   1273.40   38.1756    0.7120         1.0132    0.7500
  584   1273.40   38.1756    0.7120         1.0132    0.7500
  585   1274.03   38.1944   62.9964         5.8787    0.7500
  586   1274.03   38.1944   62.9964         5.8787    0.7500
  587   1274.52   38.2092   21.2454         2.5137    0.7500
  588   1274.52   38.2092   21.2454         2.5137    0.7500
  589   1277.07   38.2855    0.0807         0.4924    0.7500
  590   1277.07   38.2855    0.0807         0.4924    0.7500
  591   1279.89   38.3701    0.0841         0.1387    0.7500
  592   1279.89   38.3701    0.0841         0.1387    0.7500
  593   1280.71   38.3948    0.2229         0.2569    0.7500
  594   1280.71   38.3948    0.2229         0.2569    0.7500
  595   1282.79   38.4572    1.5297        55.3206    0.7500
  596   1282.79   38.4572    1.5297        55.3206    0.7500
  597   1285.16   38.5280    5.5147         0.2432    0.5469
  598   1285.61   38.5417   71.0901         2.5359    0.7088
  599   1285.73   38.5452  141.2571         5.0702    0.6986
  600   1286.85   38.5787    0.1710         0.0335    0.0679
  601   1289.25   38.6509  232.7527         9.4013    0.7500
  602   1289.25   38.6509  232.7527         9.4013    0.7500
  603   1295.00   38.8230    0.0671       340.1840    0.0000
  604   1296.77   38.8761    1.6421         0.3384    0.7500
  605   1296.77   38.8761    1.6421         0.3384    0.7500
  606   1301.25   39.0106    0.0134         3.6050    0.0000
  607   1307.63   39.2019    0.2409         0.1224    0.7500
  608   1307.63   39.2019    0.2409         0.1224    0.7500
  609   1308.75   39.2352    0.2312         0.0176    0.7500
  610   1308.75   39.2352    0.2312         0.0176    0.7500
  611   1322.65   39.6521    0.7106         7.8793    0.7500
  612   1322.65   39.6521    0.7106         7.8793    0.7500
  613   1355.85   40.6473    0.0012         0.0354    0.7500
  614   1355.85   40.6473    0.0012         0.0354    0.7500
  615   1357.72   40.7035    0.0011         0.0790    0.0431
  616   1358.30   40.7207    0.0213         0.0036    0.7500
  617   1358.30   40.7207    0.0213         0.0036    0.7500
  618   1359.87   40.7679    0.0063         0.0064    0.0036
  619   1360.62   40.7905    0.0032         0.0101    0.0680
  620   1377.63   41.3003    0.0508         0.0292    0.7500
  621   1377.63   41.3003    0.0508         0.0292    0.7500
  622   1386.54   41.5675    0.0000         0.3354    0.0277
  623   1389.09   41.6440    0.0086         0.0519    0.4902
  624   1405.37   42.1321    0.0003        11.3100    0.7341

     DYNMAT       :     10h50m CPU     11h 0m WALL


   This run was terminated on:   7:25:47   8Jan2021            

=------------------------------------------------------------------------------=
   JOB DONE.
=------------------------------------------------------------------------------=
